HEADER
"PSFversion" "1.00"
"simulator" "spectre"
"version" "19.1.0.541.isr14"
"date" "12:24:01 AM, Sat Jul 3, 2021"
"design" "(no title)"
"analysis type" "dc"
"analysis name" "dcsweep"
"analysis description" "DC Analysis `dcsweep': vd:dc = (0 V -> 1.1 V)"
"xVecSorted" "unsorted"
"tolerance.relative" 0.00100000
"reltol" 0.00100000
"abstol(V)" 1.00000e-06
"abstol(I)" 1.00000e-12
"temp" 27.0000
"tnom" 27.0000
"tempeffects" "all"
"gmindc" 1.00000e-12
TYPE
"sweep" FLOAT DOUBLE PROP(
"key" "sweep"
)
"LogicV" FLOAT DOUBLE PROP(
"key" "node"
)
"V" FLOAT DOUBLE PROP(
"units" "V"
"key" "node"
"tolerance" 1.00000e-06
)
"I" FLOAT DOUBLE PROP(
"units" "A"
"key" "branch"
"tolerance" 1.00000e-12
)
"MMF" FLOAT DOUBLE PROP(
"units" "A*turn"
"key" "node"
"tolerance" 1.00000e-12
)
"Wb" FLOAT DOUBLE PROP(
"units" "Wb"
"key" "node"
"tolerance" 1.00000e-09
)
"Temp" FLOAT DOUBLE PROP(
"units" "C"
"key" "node"
"tolerance" 0.000100000
)
"Pwr" FLOAT DOUBLE PROP(
"units" "W"
"key" "node"
"tolerance" 1.00000e-09
)
"U" FLOAT DOUBLE PROP(
"units" ""
"key" "node"
"tolerance" 1.00000e-06
)
"V/Sec" FLOAT DOUBLE PROP(
"units" "V/s"
"key" "node"
"tolerance" 0.000100000
)
"I/Sec" FLOAT DOUBLE PROP(
"units" "A/s"
"key" "node"
"tolerance" 1.00000e-06
)
"1/Sec" FLOAT DOUBLE PROP(
"units" "1/s"
"key" "node"
"tolerance" 0.000100000
)
"HOD" FLOAT DOUBLE PROP(
"units" ""
"key" "node"
"tolerance" 0.0100000
)
"Q" FLOAT DOUBLE PROP(
"units" "Coul"
"key" "node"
"tolerance" 1.00000e-15
)
SWEEP
"dc" "sweep" PROP(
"sweep_direction" 0
"units" "V"
"plot" 0
"grid" 1
)
TRACE
"drain" "V"
"gate" "V"
"source" "V"
"bulk" "V"
"vb:p" "I"
"vd:p" "I"
"vg:p" "I"
"vs:p" "I"
VALUE
"dc" 0.000000000000000e+00
"drain" 0.000000000000000e+00
"gate" 1.100000000000000e+00
"source" 0.000000000000000e+00
"bulk" 0.000000000000000e+00
"vb:p" 8.705848622809816e-10
"vd:p" 3.124736704194359e-10
"vg:p" -1.495532202851896e-09
"vs:p" 3.124736704194359e-10
"dc" 1.000000000000000e-02
"drain" 1.000000000000000e-02
"gate" 1.100000000000000e+00
"source" 0.000000000000000e+00
"bulk" 0.000000000000000e+00
"vb:p" 8.707195932147239e-10
"vd:p" -2.429907829849935e-06
"vg:p" -1.494043374136133e-09
"vs:p" 2.430531153630856e-06
"dc" 2.000000000000000e-02
"drain" 2.000000000000000e-02
"gate" 1.100000000000000e+00
"source" 0.000000000000000e+00
"bulk" 0.000000000000000e+00
"vb:p" 8.708407378150564e-10
"vd:p" -4.815567679608403e-06
"vg:p" -1.490652343552435e-09
"vs:p" 4.816187491214141e-06
"dc" 3.000000000000000e-02
"drain" 3.000000000000000e-02
"gate" 1.100000000000000e+00
"source" 0.000000000000000e+00
"bulk" 0.000000000000000e+00
"vb:p" 8.709611970532420e-10
"vd:p" -7.156673023758541e-06
"vg:p" -1.486933381047805e-09
"vs:p" 7.157288995942536e-06
"dc" 4.000000000000000e-02
"drain" 4.000000000000000e-02
"gate" 1.100000000000000e+00
"source" 0.000000000000000e+00
"bulk" 0.000000000000000e+00
"vb:p" 8.710811949419420e-10
"vd:p" -9.453236458663014e-06
"vg:p" -1.483313018347569e-09
"vs:p" 9.453848690486421e-06
"dc" 5.000000000000000e-02
"drain" 5.000000000000000e-02
"gate" 1.100000000000000e+00
"source" 0.000000000000000e+00
"bulk" 0.000000000000000e+00
"vb:p" 8.712008836723413e-10
"vd:p" -1.170527514362331e-05
"vg:p" -1.479815149503427e-09
"vs:p" 1.170588375788914e-05
"dc" 6.000000000000000e-02
"drain" 6.000000000000000e-02
"gate" 1.100000000000000e+00
"source" 0.000000000000000e+00
"bulk" 0.000000000000000e+00
"vb:p" 8.713203666448092e-10
"vd:p" -1.391280943329547e-05
"vg:p" -1.476418141683538e-09
"vs:p" 1.391341453107051e-05
"dc" 7.000000000000001e-02
"drain" 7.000000000000001e-02
"gate" 1.100000000000000e+00
"source" 0.000000000000000e+00
"bulk" 0.000000000000000e+00
"vb:p" 8.714397141149792e-10
"vd:p" -1.607586202219052e-05
"vg:p" -1.473103120368411e-09
"vs:p" 1.607646368559677e-05
"dc" 8.000000000000000e-02
"drain" 8.000000000000000e-02
"gate" 1.100000000000000e+00
"source" 0.000000000000000e+00
"bulk" 0.000000000000000e+00
"vb:p" 8.715589738229729e-10
"vd:p" -1.819445732592462e-05
"vg:p" -1.469857177162648e-09
"vs:p" 1.819505562412796e-05
"dc" 9.000000000000000e-02
"drain" 9.000000000000000e-02
"gate" 1.100000000000000e+00
"source" 0.000000000000000e+00
"bulk" 0.000000000000000e+00
"vb:p" 8.716781782142859e-10
"vd:p" -2.026862100882912e-05
"vg:p" -1.466671657079545e-09
"vs:p" 2.026921600230798e-05
"dc" 9.999999999999999e-02
"drain" 9.999999999999999e-02
"gate" 1.100000000000000e+00
"source" 0.000000000000000e+00
"bulk" 0.000000000000000e+00
"vb:p" 8.717973493454005e-10
"vd:p" -2.229837961267871e-05
"vg:p" -1.463540616489135e-09
"vs:p" 2.229897135594585e-05
"dc" 1.100000000000000e-01
"drain" 1.100000000000000e-01
"gate" 1.100000000000000e+00
"source" 0.000000000000000e+00
"bulk" 0.000000000000000e+00
"vb:p" 8.719165022164069e-10
"vd:p" -2.428376025811155e-05
"vg:p" -1.460459832569680e-09
"vs:p" 2.428434880144190e-05
"dc" 1.200000000000000e-01
"drain" 1.200000000000000e-01
"gate" 1.100000000000000e+00
"source" 0.000000000000000e+00
"bulk" 0.000000000000000e+00
"vb:p" 8.720356470352074e-10
"vd:p" -2.622479039953115e-05
"vg:p" -1.457426200090383e-09
"vs:p" 2.622537579008420e-05
"dc" 1.300000000000000e-01
"drain" 1.300000000000000e-01
"gate" 1.100000000000000e+00
"source" 0.000000000000000e+00
"bulk" 0.000000000000000e+00
"vb:p" 8.721547907557976e-10
"vd:p" -2.812149762018839e-05
"vg:p" -1.454437362842268e-09
"vs:p" 2.812207990276048e-05
"dc" 1.400000000000000e-01
"drain" 1.400000000000000e-01
"gate" 1.100000000000000e+00
"source" 0.000000000000000e+00
"bulk" 0.000000000000000e+00
"vb:p" 8.722739381234662e-10
"vd:p" -2.997390945818406e-05
"vg:p" -1.451491484109436e-09
"vs:p" 2.997448867573005e-05
"dc" 1.500000000000000e-01
"drain" 1.500000000000000e-01
"gate" 1.100000000000000e+00
"source" 0.000000000000000e+00
"bulk" 0.000000000000000e+00
"vb:p" 8.723930923850833e-10
"vd:p" -3.178205325703936e-05
"vg:p" -1.448587100467811e-09
"vs:p" 3.178262945104745e-05
"dc" 1.600000000000000e-01
"drain" 1.600000000000000e-01
"gate" 1.100000000000000e+00
"source" 0.000000000000000e+00
"bulk" 0.000000000000000e+00
"vb:p" 8.725122557718138e-10
"vd:p" -3.354595603667719e-05
"vg:p" -1.445723026648667e-09
"vs:p" 3.354652924744807e-05
"dc" 1.700000000000000e-01
"drain" 1.700000000000000e-01
"gate" 1.100000000000000e+00
"source" 0.000000000000000e+00
"bulk" 0.000000000000000e+00
"vb:p" 8.726314298273490e-10
"vd:p" -3.526564438243514e-05
"vg:p" -1.442898292520553e-09
"vs:p" 3.526621464929783e-05
"dc" 1.800000000000000e-01
"drain" 1.800000000000000e-01
"gate" 1.100000000000000e+00
"source" 0.000000000000000e+00
"bulk" 0.000000000000000e+00
"vb:p" 8.727506156311919e-10
"vd:p" -3.694114435128269e-05
"vg:p" -1.440112100832228e-09
"vs:p" 3.694171171276789e-05
"dc" 1.900000000000000e-01
"drain" 1.900000000000000e-01
"gate" 1.100000000000000e+00
"source" 0.000000000000000e+00
"bulk" 0.000000000000000e+00
"vb:p" 8.728698139506694e-10
"vd:p" -3.857248139590848e-05
"vg:p" -1.437363798758926e-09
"vs:p" 3.857304588989328e-05
"dc" 2.000000000000000e-01
"drain" 2.000000000000000e-01
"gate" 1.100000000000000e+00
"source" 0.000000000000000e+00
"bulk" 0.000000000000000e+00
"vb:p" 8.729890253446454e-10
"vd:p" -4.015968030890081e-05
"vg:p" -1.434652858901588e-09
"vs:p" 4.016024197273436e-05
"dc" 2.100000000000000e-01
"drain" 2.100000000000000e-01
"gate" 1.100000000000000e+00
"source" 0.000000000000000e+00
"bulk" 0.000000000000000e+00
"vb:p" 8.731082502343415e-10
"vd:p" -4.170276519100839e-05
"vg:p" -1.431978866970183e-09
"vs:p" 4.170332406162513e-05
"dc" 2.200000000000001e-01
"drain" 2.200000000000001e-01
"gate" 1.100000000000000e+00
"source" 0.000000000000000e+00
"bulk" 0.000000000000000e+00
"vb:p" 8.732274889520629e-10
"vd:p" -4.320175944956313e-05
"vg:p" -1.429341514365526e-09
"vs:p" 4.320231556358855e-05
"dc" 2.300000000000001e-01
"drain" 2.300000000000001e-01
"gate" 1.100000000000000e+00
"source" 0.000000000000000e+00
"bulk" 0.000000000000000e+00
"vb:p" 8.733467417748280e-10
"vd:p" -4.465668583574456e-05
"vg:p" -1.426740594498566e-09
"vs:p" 4.465723922959728e-05
"dc" 2.400000000000001e-01
"drain" 2.400000000000001e-01
"gate" 1.100000000000000e+00
"source" 0.000000000000000e+00
"bulk" 0.000000000000000e+00
"vb:p" 8.734660089478741e-10
"vd:p" -4.606756653264496e-05
"vg:p" -1.424176002093378e-09
"vs:p" 4.606811724263810e-05
"dc" 2.500000000000001e-01
"drain" 2.500000000000001e-01
"gate" 1.100000000000000e+00
"source" 0.000000000000000e+00
"bulk" 0.000000000000000e+00
"vb:p" 8.735852907014754e-10
"vd:p" -4.743442331030617e-05
"vg:p" -1.421647734990516e-09
"vs:p" 4.743497137275046e-05
"dc" 2.600000000000001e-01
"drain" 2.600000000000001e-01
"gate" 1.100000000000000e+00
"source" 0.000000000000000e+00
"bulk" 0.000000000000000e+00
"vb:p" 8.737045872630949e-10
"vd:p" -4.875727776932658e-05
"vg:p" -1.419155898149881e-09
"vs:p" 4.875782322063747e-05
"dc" 2.700000000000001e-01
"drain" 2.700000000000001e-01
"gate" 1.100000000000000e+00
"source" 0.000000000000000e+00
"bulk" 0.000000000000000e+00
"vb:p" 8.738238988667455e-10
"vd:p" -5.003615170166319e-05
"vg:p" -1.416700709677475e-09
"vs:p" 5.003669457847399e-05
"dc" 2.800000000000001e-01
"drain" 2.800000000000001e-01
"gate" 1.100000000000000e+00
"source" 0.000000000000000e+00
"bulk" 0.000000000000000e+00
"vb:p" 8.739432257603945e-10
"vd:p" -5.127106760634089e-05
"vg:p" -1.414282508782886e-09
"vs:p" 5.127160794562391e-05
"dc" 2.900000000000001e-01
"drain" 2.900000000000001e-01
"gate" 1.100000000000000e+00
"source" 0.000000000000000e+00
"bulk" 0.000000000000000e+00
"vb:p" 8.740625682122445e-10
"vd:p" -5.246204940948638e-05
"vg:p" -1.411901765625776e-09
"vs:p" 5.246258724868378e-05
"dc" 3.000000000000001e-01
"drain" 3.000000000000001e-01
"gate" 1.100000000000000e+00
"source" 0.000000000000000e+00
"bulk" 0.000000000000000e+00
"vb:p" 8.741819265164523e-10
"vd:p" -5.360912345311138e-05
"vg:p" -1.409559093031630e-09
"vs:p" 5.360965883027789e-05
"dc" 3.100000000000001e-01
"drain" 3.100000000000001e-01
"gate" 1.100000000000000e+00
"source" 0.000000000000000e+00
"bulk" 0.000000000000000e+00
"vb:p" 8.743013009984316e-10
"vd:p" -5.471231983614495e-05
"vg:p" -1.407255260048964e-09
"vs:p" 5.471285279010400e-05
"dc" 3.200000000000001e-01
"drain" 3.200000000000001e-01
"gate" 1.100000000000000e+00
"source" 0.000000000000000e+00
"bulk" 0.000000000000000e+00
"vb:p" 8.744206920202684e-10
"vd:p" -5.577167421516381e-05
"vg:p" -1.404991207277527e-09
"vs:p" 5.577220478567907e-05
"dc" 3.300000000000001e-01
"drain" 3.300000000000001e-01
"gate" 1.100000000000000e+00
"source" 0.000000000000000e+00
"bulk" 0.000000000000000e+00
"vb:p" 8.745400999860800e-10
"vd:p" -5.678723020185168e-05
"vg:p" -1.402768063808354e-09
"vs:p" 5.678775842981550e-05
"dc" 3.400000000000001e-01
"drain" 3.400000000000001e-01
"gate" 1.100000000000000e+00
"source" 0.000000000000000e+00
"bulk" 0.000000000000000e+00
"vb:p" 8.746595253476064e-10
"vd:p" -5.775904252991619e-05
"vg:p" -1.400587165470252e-09
"vs:p" 5.775956845755631e-05
"dc" 3.500000000000001e-01
"drain" 3.500000000000001e-01
"gate" 1.100000000000000e+00
"source" 0.000000000000000e+00
"bulk" 0.000000000000000e+00
"vb:p" 8.747789686098411e-10
"vd:p" -5.868718120581860e-05
"vg:p" -1.398450073853204e-09
"vs:p" 5.868770487692384e-05
"dc" 3.600000000000002e-01
"drain" 3.600000000000002e-01
"gate" 1.100000000000000e+00
"source" 0.000000000000000e+00
"bulk" 0.000000000000000e+00
"vb:p" 8.748984303366210e-10
"vd:p" -5.957173690381634e-05
"vg:p" -1.396358595257142e-09
"vs:p" 5.957225836398126e-05
"dc" 3.700000000000002e-01
"drain" 3.700000000000002e-01
"gate" 1.100000000000000e+00
"source" 0.000000000000000e+00
"bulk" 0.000000000000000e+00
"vb:p" 8.750179111559412e-10
"vd:p" -6.041282791282042e-05
"vg:p" -1.394314798271392e-09
"vs:p" 6.041334720970753e-05
"dc" 3.800000000000002e-01
"drain" 3.800000000000002e-01
"gate" 1.100000000000000e+00
"source" 0.000000000000000e+00
"bulk" 0.000000000000000e+00
"vb:p" 8.751374117644973e-10
"vd:p" -6.121060898324204e-05
"vg:p" -1.392321028108026e-09
"vs:p" 6.121112616685839e-05
"dc" 3.900000000000002e-01
"drain" 3.900000000000002e-01
"gate" 1.100000000000000e+00
"source" 0.000000000000000e+00
"bulk" 0.000000000000000e+00
"vb:p" 8.752569329309595e-10
"vd:p" -6.196528244383833e-05
"vg:p" -1.390379915088536e-09
"vs:p" 6.196579756682047e-05
"dc" 4.000000000000002e-01
"drain" 4.000000000000002e-01
"gate" 1.100000000000000e+00
"source" 0.000000000000000e+00
"bulk" 0.000000000000000e+00
"vb:p" 8.753764754970433e-10
"vd:p" -6.267711194191396e-05
"vg:p" -1.388494373844698e-09
"vs:p" 6.267762505981231e-05
"dc" 4.100000000000002e-01
"drain" 4.100000000000002e-01
"gate" 1.100000000000000e+00
"source" 0.000000000000000e+00
"bulk" 0.000000000000000e+00
"vb:p" 8.754960403754010e-10
"vd:p" -6.334643907693399e-05
"vg:p" -1.386667588925005e-09
"vs:p" 6.334695024848255e-05
"dc" 4.200000000000002e-01
"drain" 4.200000000000002e-01
"gate" 1.100000000000000e+00
"source" 0.000000000000000e+00
"bulk" 0.000000000000000e+00
"vb:p" 8.756156285430718e-10
"vd:p" -6.397370301160686e-05
"vg:p" -1.384902981763249e-09
"vs:p" 6.397421229896009e-05
"dc" 4.300000000000002e-01
"drain" 4.300000000000002e-01
"gate" 1.100000000000000e+00
"source" 0.000000000000000e+00
"bulk" 0.000000000000000e+00
"vb:p" 8.757352410291389e-10
"vd:p" -6.455946281669507e-05
"vg:p" -1.383204153641953e-09
"vs:p" 6.455997028560770e-05
"dc" 4.400000000000002e-01
"drain" 4.400000000000002e-01
"gate" 1.100000000000000e+00
"source" 0.000000000000000e+00
"bulk" 0.000000000000000e+00
"vb:p" 8.758548788952196e-10
"vd:p" -6.510442180590194e-05
"vg:p" -1.381574799759481e-09
"vs:p" 6.510492752582281e-05
"dc" 4.500000000000002e-01
"drain" 4.500000000000002e-01
"gate" 1.100000000000000e+00
"source" 0.000000000000000e+00
"bulk" 0.000000000000000e+00
"vb:p" 8.759745432080354e-10
"vd:p" -6.560945244476937e-05
"vg:p" -1.380018591240576e-09
"vs:p" 6.560995648881740e-05
"dc" 4.600000000000002e-01
"drain" 4.600000000000002e-01
"gate" 1.100000000000000e+00
"source" 0.000000000000000e+00
"bulk" 0.000000000000000e+00
"vb:p" 8.760942350037851e-10
"vd:p" -6.607561963072483e-05
"vg:p" -1.378539025302480e-09
"vs:p" 6.607612207551512e-05
"dc" 4.700000000000003e-01
"drain" 4.700000000000003e-01
"gate" 1.100000000000000e+00
"source" 0.000000000000000e+00
"bulk" 0.000000000000000e+00
"vb:p" 8.762139552455043e-10
"vd:p" -6.650419938378215e-05
"vg:p" -1.377139248894398e-09
"vs:p" 6.650470030907581e-05
"dc" 4.800000000000003e-01
"drain" 4.800000000000003e-01
"gate" 1.100000000000000e+00
"source" 0.000000000000000e+00
"bulk" 0.000000000000000e+00
"vb:p" 8.763337047760038e-10
"vd:p" -6.689668949332328e-05
"vg:p" -1.375821867477727e-09
"vs:p" 6.689718898148597e-05
"dc" 4.900000000000003e-01
"drain" 4.900000000000003e-01
"gate" 1.100000000000000e+00
"source" 0.000000000000000e+00
"bulk" 0.000000000000000e+00
"vb:p" 8.764534842706691e-10
"vd:p" -6.725480872018609e-05
"vg:p" -1.374588756950939e-09
"vs:p" 6.725530685545879e-05
"dc" 5.000000000000002e-01
"drain" 5.000000000000002e-01
"gate" 1.100000000000000e+00
"source" 0.000000000000000e+00
"bulk" 0.000000000000000e+00
"vb:p" 8.765732941954338e-10
"vd:p" -6.758048198827601e-05
"vg:p" -1.373440901123039e-09
"vs:p" 6.758097885588295e-05
"dc" 5.100000000000002e-01
"drain" 5.100000000000002e-01
"gate" 1.100000000000000e+00
"source" 0.000000000000000e+00
"bulk" 0.000000000000000e+00
"vb:p" 8.766931347757267e-10
"vd:p" -6.787581066010696e-05
"vg:p" -1.372378277575180e-09
"vs:p" 6.787630634524976e-05
"dc" 5.200000000000002e-01
"drain" 5.200000000000002e-01
"gate" 1.100000000000000e+00
"source" 0.000000000000000e+00
"bulk" 0.000000000000000e+00
"vb:p" 8.768130059809073e-10
"vd:p" -6.814302922468017e-05
"vg:p" -1.371399810001428e-09
"vs:p" 6.814352381148419e-05
"dc" 5.300000000000002e-01
"drain" 5.300000000000002e-01
"gate" 1.100000000000000e+00
"source" 0.000000000000000e+00
"bulk" 0.000000000000000e+00
"vb:p" 8.769329075267595e-10
"vd:p" -6.838445200119407e-05
"vg:p" -1.370503395618348e-09
"vs:p" 6.838494557168217e-05
"dc" 5.400000000000003e-01
"drain" 5.400000000000003e-01
"gate" 1.100000000000000e+00
"source" 0.000000000000000e+00
"bulk" 0.000000000000000e+00
"vb:p" 8.770528388955425e-10
"vd:p" -6.860241513696244e-05
"vg:p" -1.369686004238363e-09
"vs:p" 6.860290777012778e-05
"dc" 5.500000000000003e-01
"drain" 5.500000000000003e-01
"gate" 1.100000000000000e+00
"source" 0.000000000000000e+00
"bulk" 0.000000000000000e+00
"vb:p" 8.771727993705305e-10
"vd:p" -6.879921976766854e-05
"vg:p" -1.368943834435203e-09
"vs:p" 6.879971153870361e-05
"dc" 5.600000000000003e-01
"drain" 5.600000000000003e-01
"gate" 1.100000000000000e+00
"source" 0.000000000000000e+00
"bulk" 0.000000000000000e+00
"vb:p" 8.772927880799316e-10
"vd:p" -6.897708159458307e-05
"vg:p" -1.368272504891996e-09
"vs:p" 6.897757257429989e-05
"dc" 5.700000000000003e-01
"drain" 5.700000000000003e-01
"gate" 1.100000000000000e+00
"source" 0.000000000000000e+00
"bulk" 0.000000000000000e+00
"vb:p" 8.774128040444227e-10
"vd:p" -6.913809059567792e-05
"vg:p" -1.367667256987523e-09
"vs:p" 6.913858085013088e-05
"dc" 5.800000000000003e-01
"drain" 5.800000000000003e-01
"gate" 1.100000000000000e+00
"source" 0.000000000000000e+00
"bulk" 0.000000000000000e+00
"vb:p" 8.775328462232915e-10
"vd:p" -6.928418264598735e-05
"vg:p" -1.367123147524642e-09
"vs:p" 6.928467223628866e-05
"dc" 5.900000000000003e-01
"drain" 5.900000000000003e-01
"gate" 1.100000000000000e+00
"source" 0.000000000000000e+00
"bulk" 0.000000000000000e+00
"vb:p" 8.776529135553256e-10
"vd:p" -6.941712300410830e-05
"vg:p" -1.366635216459938e-09
"vs:p" 6.941761198641120e-05
"dc" 6.000000000000003e-01
"drain" 6.000000000000003e-01
"gate" 1.100000000000000e+00
"source" 0.000000000000000e+00
"bulk" 0.000000000000000e+00
"vb:p" 8.777730049921398e-10
"vd:p" -6.953850028003861e-05
"vg:p" -1.366198621397216e-09
"vs:p" 6.953898870565502e-05
"dc" 6.100000000000003e-01
"drain" 6.100000000000003e-01
"gate" 1.100000000000000e+00
"source" 0.000000000000000e+00
"bulk" 0.000000000000000e+00
"vb:p" 8.778931195234234e-10
"vd:p" -6.964972875648294e-05
"vg:p" -1.365808736737182e-09
"vs:p" 6.965021667210017e-05
"dc" 6.200000000000003e-01
"drain" 6.200000000000003e-01
"gate" 1.100000000000000e+00
"source" 0.000000000000000e+00
"bulk" 0.000000000000000e+00
"vb:p" 8.780132561943630e-10
"vd:p" -6.975205672767851e-05
"vg:p" -1.365461219812026e-09
"vs:p" 6.975254417564213e-05
"dc" 6.300000000000003e-01
"drain" 6.300000000000003e-01
"gate" 1.100000000000000e+00
"source" 0.000000000000000e+00
"bulk" 0.000000000000000e+00
"vb:p" 8.781334141163088e-10
"vd:p" -6.984657868793379e-05
"vg:p" -1.365152048902533e-09
"vs:p" 6.984706570656857e-05
"dc" 6.400000000000003e-01
"drain" 6.400000000000003e-01
"gate" 1.100000000000000e+00
"source" 0.000000000000000e+00
"bulk" 0.000000000000000e+00
"vb:p" 8.782535924720640e-10
"vd:p" -6.993424957406741e-05
"vg:p" -1.364877539034563e-09
"vs:p" 6.993473619801398e-05
"dc" 6.500000000000004e-01
"drain" 6.500000000000004e-01
"gate" 1.100000000000000e+00
"source" 0.000000000000000e+00
"bulk" 0.000000000000000e+00
"vb:p" 8.783737905170781e-10
"vd:p" -7.001589970346024e-05
"vg:p" -1.364634341364437e-09
"vs:p" 7.001638596401109e-05
"dc" 6.600000000000004e-01
"drain" 6.600000000000004e-01
"gate" 1.100000000000000e+00
"source" 0.000000000000000e+00
"bulk" 0.000000000000000e+00
"vb:p" 8.784940075777711e-10
"vd:p" -7.009224946360408e-05
"vg:p" -1.364419431258898e-09
"vs:p" 7.009273538902775e-05
"dc" 6.700000000000004e-01
"drain" 6.700000000000004e-01
"gate" 1.100000000000000e+00
"source" 0.000000000000000e+00
"bulk" 0.000000000000000e+00
"vb:p" 8.786142430479658e-10
"vd:p" -7.016392315531611e-05
"vg:p" -1.364230089216266e-09
"vs:p" 7.016440877116227e-05
"dc" 6.800000000000004e-01
"drain" 6.800000000000004e-01
"gate" 1.100000000000000e+00
"source" 0.000000000000000e+00
"bulk" 0.000000000000000e+00
"vb:p" 8.787344963842693e-10
"vd:p" -7.023146165691690e-05
"vg:p" -1.364063877795268e-09
"vs:p" 7.023194698629832e-05
"dc" 6.900000000000004e-01
"drain" 6.900000000000004e-01
"gate" 1.100000000000000e+00
"source" 0.000000000000000e+00
"bulk" 0.000000000000000e+00
"vb:p" 8.788547671008370e-10
"vd:p" -7.029533376556024e-05
"vg:p" -1.363918616842877e-09
"vs:p" 7.029581882940999e-05
"dc" 7.000000000000004e-01
"drain" 7.000000000000004e-01
"gate" 1.100000000000000e+00
"source" 0.000000000000000e+00
"bulk" 0.000000000000000e+00
"vb:p" 8.789750547640298e-10
"vd:p" -7.035594619754078e-05
"vg:p" -1.363792358594680e-09
"vs:p" 7.035643101484461e-05
"dc" 7.100000000000004e-01
"drain" 7.100000000000004e-01
"gate" 1.100000000000000e+00
"source" 0.000000000000000e+00
"bulk" 0.000000000000000e+00
"vb:p" 8.790953589871604e-10
"vd:p" -7.041365230681992e-05
"vg:p" -1.363683363665646e-09
"vs:p" 7.041413689482460e-05
"dc" 7.200000000000004e-01
"drain" 7.200000000000004e-01
"gate" 1.100000000000000e+00
"source" 0.000000000000000e+00
"bulk" 0.000000000000000e+00
"vb:p" 8.792156794255508e-10
"vd:p" -7.046875962388631e-05
"vg:p" -1.363590078539704e-09
"vs:p" 7.046924399828544e-05
"dc" 7.300000000000004e-01
"drain" 7.300000000000004e-01
"gate" 1.100000000000000e+00
"source" 0.000000000000000e+00
"bulk" 0.000000000000000e+00
"vb:p" 8.793360157718376e-10
"vd:p" -7.052153633655061e-05
"vg:p" -1.363511114876288e-09
"vs:p" 7.052202051164972e-05
"dc" 7.400000000000004e-01
"drain" 7.400000000000004e-01
"gate" 1.100000000000000e+00
"source" 0.000000000000000e+00
"bulk" 0.000000000000000e+00
"vb:p" 8.794563677518977e-10
"vd:p" -7.057221683878201e-05
"vg:p" -1.363445230755380e-09
"vs:p" 7.057270082764502e-05
"dc" 7.500000000000004e-01
"drain" 7.500000000000004e-01
"gate" 1.100000000000000e+00
"source" 0.000000000000000e+00
"bulk" 0.000000000000000e+00
"vb:p" 8.795767351209396e-10
"vd:p" -7.062100646923651e-05
"vg:p" -1.363391313853648e-09
"vs:p" 7.062149028381524e-05
"dc" 7.600000000000005e-01
"drain" 7.600000000000005e-01
"gate" 1.100000000000000e+00
"source" 0.000000000000000e+00
"bulk" 0.000000000000000e+00
"vb:p" 8.796971176601576e-10
"vd:p" -7.066808555175465e-05
"vg:p" -1.363348366466485e-09
"vs:p" 7.066856920300348e-05
"dc" 7.700000000000005e-01
"drain" 7.700000000000005e-01
"gate" 1.100000000000000e+00
"source" 0.000000000000000e+00
"bulk" 0.000000000000000e+00
"vb:p" 8.798175151737510e-10
"vd:p" -7.071361283852388e-05
"vg:p" -1.363315492246026e-09
"vs:p" 7.071409633650094e-05
"dc" 7.800000000000005e-01
"drain" 7.800000000000005e-01
"gate" 1.100000000000000e+00
"source" 0.000000000000000e+00
"bulk" 0.000000000000000e+00
"vb:p" 8.799379274861951e-10
"vd:p" -7.075772844443933e-05
"vg:p" -1.363291884504236e-09
"vs:p" 7.075821179839637e-05
"dc" 7.900000000000005e-01
"drain" 7.900000000000005e-01
"gate" 1.100000000000000e+00
"source" 0.000000000000000e+00
"bulk" 0.000000000000000e+00
"vb:p" 8.800583544399457e-10
"vd:p" -7.080055634942059e-05
"vg:p" -1.363276815924700e-09
"vs:p" 7.080103956788209e-05
"dc" 8.000000000000005e-01
"drain" 8.000000000000005e-01
"gate" 1.100000000000000e+00
"source" 0.000000000000000e+00
"bulk" 0.000000000000000e+00
"vb:p" 8.801787958933452e-10
"vd:p" -7.084220653458697e-05
"vg:p" -1.363269629529946e-09
"vs:p" 7.084268962542062e-05
"dc" 8.100000000000005e-01
"drain" 8.100000000000005e-01
"gate" 1.100000000000000e+00
"source" 0.000000000000000e+00
"bulk" 0.000000000000000e+00
"vb:p" 8.802992517188269e-10
"vd:p" -7.088277680847477e-05
"vg:p" -1.363269730760845e-09
"vs:p" 7.088325977895383e-05
"dc" 8.200000000000005e-01
"drain" 8.200000000000005e-01
"gate" 1.100000000000000e+00
"source" 0.000000000000000e+00
"bulk" 0.000000000000000e+00
"vb:p" 8.804197218012935e-10
"vd:p" -7.092235437096123e-05
"vg:p" -1.363276580537116e-09
"vs:p" 7.092283722781996e-05
"dc" 8.300000000000005e-01
"drain" 8.300000000000005e-01
"gate" 1.100000000000000e+00
"source" 0.000000000000000e+00
"bulk" 0.000000000000000e+00
"vb:p" 8.805402060367319e-10
"vd:p" -7.096101715520421e-05
"vg:p" -1.363289689182627e-09
"vs:p" 7.096149990468735e-05
"dc" 8.400000000000005e-01
"drain" 8.400000000000005e-01
"gate" 1.100000000000000e+00
"source" 0.000000000000000e+00
"bulk" 0.000000000000000e+00
"vb:p" 8.806607043310000e-10
"vd:p" -7.099883498159912e-05
"vg:p" -1.363308611115414e-09
"vs:p" 7.099931762950590e-05
"dc" 8.500000000000005e-01
"drain" 8.500000000000005e-01
"gate" 1.100000000000000e+00
"source" 0.000000000000000e+00
"bulk" 0.000000000000000e+00
"vb:p" 8.807812165987157e-10
"vd:p" -7.103587055242824e-05
"vg:p" -1.363332940221119e-09
"vs:p" 7.103635310415186e-05
"dc" 8.600000000000005e-01
"drain" 8.600000000000005e-01
"gate" 1.100000000000000e+00
"source" 0.000000000000000e+00
"bulk" 0.000000000000000e+00
"vb:p" 8.809017427623275e-10
"vd:p" -7.107218031132894e-05
"vg:p" -1.363362305853931e-09
"vs:p" 7.107266277189204e-05
"dc" 8.700000000000006e-01
"drain" 8.700000000000006e-01
"gate" 1.100000000000000e+00
"source" 0.000000000000000e+00
"bulk" 0.000000000000000e+00
"vb:p" 8.810222827512805e-10
"vd:p" -7.110781518792561e-05
"vg:p" -1.363396369450001e-09
"vs:p" 7.110829756201231e-05
"dc" 8.800000000000006e-01
"drain" 8.800000000000006e-01
"gate" 1.100000000000000e+00
"source" 0.000000000000000e+00
"bulk" 0.000000000000000e+00
"vb:p" 8.811428365012697e-10
"vd:p" -7.114282124474505e-05
"vg:p" -1.363434821822896e-09
"vs:p" 7.114330353673036e-05
"dc" 8.900000000000006e-01
"drain" 8.900000000000006e-01
"gate" 1.100000000000000e+00
"source" 0.000000000000000e+00
"bulk" 0.000000000000000e+00
"vb:p" 8.812634039535982e-10
"vd:p" -7.117724024085964e-05
"vg:p" -1.363477381422603e-09
"vs:p" 7.117772245483711e-05
"dc" 9.000000000000006e-01
"drain" 9.000000000000006e-01
"gate" 1.100000000000000e+00
"source" 0.000000000000000e+00
"bulk" 0.000000000000000e+00
"vb:p" 8.813839850545938e-10
"vd:p" -7.121111012442708e-05
"vg:p" -1.363523794476406e-09
"vs:p" 7.121159226423651e-05
"dc" 9.100000000000006e-01
"drain" 9.100000000000006e-01
"gate" 1.100000000000000e+00
"source" 0.000000000000000e+00
"bulk" 0.000000000000000e+00
"vb:p" 8.815045797551115e-10
"vd:p" -7.124446546440622e-05
"vg:p" -1.363573840241402e-09
"vs:p" 7.124494753366672e-05
"dc" 9.200000000000006e-01
"drain" 9.200000000000006e-01
"gate" 1.100000000000000e+00
"source" 0.000000000000000e+00
"bulk" 0.000000000000000e+00
"vb:p" 8.816251880100792e-10
"vd:p" -7.127733783011412e-05
"vg:p" -1.363627355139954e-09
"vs:p" 7.127781983228123e-05
"dc" 9.300000000000006e-01
"drain" 9.300000000000006e-01
"gate" 1.100000000000000e+00
"source" 0.000000000000000e+00
"bulk" 0.000000000000000e+00
"vb:p" 8.817458097781108e-10
"vd:p" -7.130975612589001e-05
"vg:p" -1.363684351338646e-09
"vs:p" 7.131023806443158e-05
"dc" 9.400000000000006e-01
"drain" 9.400000000000006e-01
"gate" 1.100000000000000e+00
"source" 0.000000000000000e+00
"bulk" 0.000000000000000e+00
"vb:p" 8.818664450211263e-10
"vd:p" -7.134174688676017e-05
"vg:p" -1.363745540610715e-09
"vs:p" 7.134222876585577e-05
"dc" 9.500000000000006e-01
"drain" 9.500000000000006e-01
"gate" 1.100000000000000e+00
"source" 0.000000000000000e+00
"bulk" 0.000000000000000e+00
"vb:p" 8.819870937040492e-10
"vd:p" -7.137333454209477e-05
"vg:p" -1.363811534627096e-09
"vs:p" 7.137381636653570e-05
"dc" 9.600000000000006e-01
"drain" 9.600000000000006e-01
"gate" 1.100000000000000e+00
"source" 0.000000000000000e+00
"bulk" 0.000000000000000e+00
"vb:p" 8.821077557945355e-10
"vd:p" -7.140454165186208e-05
"vg:p" -1.363880567453516e-09
"vs:p" 7.140502342467374e-05
"dc" 9.700000000000006e-01
"drain" 9.700000000000006e-01
"gate" 1.100000000000000e+00
"source" 0.000000000000000e+00
"bulk" 0.000000000000000e+00
"vb:p" 8.822284312627207e-10
"vd:p" -7.143538911236216e-05
"vg:p" -1.363951638099437e-09
"vs:p" 7.143587083556899e-05
"dc" 9.800000000000006e-01
"drain" 9.800000000000006e-01
"gate" 1.100000000000000e+00
"source" 0.000000000000000e+00
"bulk" 0.000000000000000e+00
"vb:p" 8.823491200809750e-10
"vd:p" -7.146589634330139e-05
"vg:p" -1.364024418154364e-09
"vs:p" 7.146637801859947e-05
"dc" 9.900000000000007e-01
"drain" 9.900000000000007e-01
"gate" 1.100000000000000e+00
"source" 0.000000000000000e+00
"bulk" 0.000000000000000e+00
"vb:p" 8.824698222237112e-10
"vd:p" -7.149608145613683e-05
"vg:p" -1.364098721907383e-09
"vs:p" 7.149656308503652e-05
"dc" 1.000000000000001e+00
"drain" 1.000000000000001e+00
"gate" 1.100000000000000e+00
"source" 0.000000000000000e+00
"bulk" 0.000000000000000e+00
"vb:p" 8.825905376672333e-10
"vd:p" -7.152596140514244e-05
"vg:p" -1.364174403775075e-09
"vs:p" 7.152644298900856e-05
"dc" 1.010000000000001e+00
"drain" 1.010000000000001e+00
"gate" 1.100000000000000e+00
"source" 0.000000000000000e+00
"bulk" 0.000000000000000e+00
"vb:p" 8.827112663895270e-10
"vd:p" -7.155555212352632e-05
"vg:p" -1.364251335116805e-09
"vs:p" 7.155603366359504e-05
"dc" 1.020000000000001e+00
"drain" 1.020000000000001e+00
"gate" 1.100000000000000e+00
"source" 0.000000000000000e+00
"bulk" 0.000000000000000e+00
"vb:p" 8.828320083701325e-10
"vd:p" -7.158486864634250e-05
"vg:p" -1.364329396983215e-09
"vs:p" 7.158535014373113e-05
"dc" 1.030000000000001e+00
"drain" 1.030000000000001e+00
"gate" 1.100000000000000e+00
"source" 0.000000000000000e+00
"bulk" 0.000000000000000e+00
"vb:p" 8.829527635900270e-10
"vd:p" -7.161392522165791e-05
"vg:p" -1.364408477131861e-09
"vs:p" 7.161440667737146e-05
"dc" 1.040000000000001e+00
"drain" 1.040000000000001e+00
"gate" 1.100000000000000e+00
"source" 0.000000000000000e+00
"bulk" 0.000000000000000e+00
"vb:p" 8.830735320315024e-10
"vd:p" -7.164273541121290e-05
"vg:p" -1.364488468476788e-09
"vs:p" 7.164321682614935e-05
"dc" 1.050000000000001e+00
"drain" 1.050000000000001e+00
"gate" 1.100000000000000e+00
"source" 0.000000000000000e+00
"bulk" 0.000000000000000e+00
"vb:p" 8.831943136780332e-10
"vd:p" -7.167131218164146e-05
"vg:p" -1.364569268114678e-09
"vs:p" 7.167179355659588e-05
"dc" 1.060000000000001e+00
"drain" 1.060000000000001e+00
"gate" 1.100000000000000e+00
"source" 0.000000000000000e+00
"bulk" 0.000000000000000e+00
"vb:p" 8.833151085142085e-10
"vd:p" -7.169966798717220e-05
"vg:p" -1.364650776621077e-09
"vs:p" 7.170014932284031e-05
"dc" 1.070000000000001e+00
"drain" 1.070000000000001e+00
"gate" 1.100000000000000e+00